108  
6    

1    
  0.0044411840431782   0.0059003793140047   0.0067425075636208
  -0.0529569100   -0.0552827300   -0.0823929700
   0.0040073200   -0.0008423700   -0.0093710800
   0.0090743200   -0.0008221000   -0.0125588600
   0.0009752000    0.0071445500   -0.0077761300
   0.0004198600    0.0001446900   -0.0044596700
  -0.0002052700   -0.0002824700   -0.0042525200
   0.0009651100    0.0024983100   -0.0037272500
  -0.0001572400   -0.0000587200   -0.0046683500
   0.0003694100    0.0003676100   -0.0044638700
  -0.0001071600   -0.0000117100   -0.0042080400
  -0.0000694800    0.0000035300   -0.0042402700
   0.0001623400    0.0000049600   -0.0042260500
  -0.0000106800   -0.0000330800   -0.0041764600
  -0.0001208700   -0.0000529000   -0.0041706600
   0.0001339100   -0.0000609900   -0.0041736400
  -0.0000089700    0.0000489900   -0.0042578900
  -0.0001347900    0.0000445000   -0.0042620000
   0.0001460700    0.0000514300   -0.0042644500
  -0.0059092700    0.0003496600    0.0081506400
   0.0042302800    0.0060555300    0.0096743000
   0.0004762800   -0.0000527300    0.0041326700
  -0.0004886300    0.0008926600    0.0043680200
   0.0004120300    0.0008964100    0.0047917600
   0.0001051200    0.0001599000    0.0043048700
   0.0016839100    0.0000788300    0.0029659000
  -0.0033519400   -0.0056017600    0.0044436400
   0.0004732500   -0.0000709100    0.0041302400
  -0.0002459200   -0.0000596500    0.0047466300
  -0.0000751600    0.0000795700    0.0045555800
   0.0003447100    0.0002171100    0.0046354900
  -0.0001424700    0.0000118900    0.0041412100
   0.0001190300    0.0000132400    0.0041430900
   0.0000263600   -0.0000051700    0.0041225500
  -0.0000550800    0.0000635900    0.0047362100
  -0.0002635500   -0.0000771500    0.0045455400
   0.0003426400    0.0000619500    0.0044986600
   0.0020954200    0.0186388200    0.0127886100
   0.0000186600    0.0002720300    0.0040358200
  -0.0000542400    0.0002391200    0.0044703600
  -0.0002114000   -0.0022395900    0.0049358000
  -0.0002388900   -0.0001104400    0.0043168800
   0.0001554100   -0.0001135400    0.0042454000
   0.0021094400    0.0141910500    0.0059100800
  -0.0000195600    0.0002149400    0.0043305300
  -0.0000319600    0.0002421400    0.0047622400
   0.0000219300    0.0000141900    0.0041826600
  -0.0001417100   -0.0000205000    0.0040937900
   0.0001153300    0.0000069100    0.0041754000
  -0.0000018600    0.0000108800    0.0042174900
  -0.0001292100    0.0000066300    0.0041943900
   0.0001307900    0.0000053800    0.0042061100
   0.0000271300   -0.0000347600    0.0041904200
  -0.0000999000   -0.0000122200    0.0041155800
   0.0000679000   -0.0000387100    0.0041871700
   0.0003468200    0.0045969200    0.0063567600
   0.0225943100    0.0045875000    0.0219273600
  -0.0010790600    0.0001434500   -0.0034617700
   0.0002015400   -0.0004427200   -0.0040433600
  -0.0000294100   -0.0007149100   -0.0041321700
  -0.0000373300    0.0000528700   -0.0041370200
  -0.0001446600   -0.0007022700   -0.0042814300
   0.0003248300   -0.0004312500   -0.0043671400
  -0.0000402700   -0.0001395100   -0.0041599900
  -0.0001145400   -0.0000009500   -0.0042802200
   0.0001423100   -0.0000042200   -0.0042450000
  -0.0000289300   -0.0000344900   -0.0042390200
  -0.0001170200    0.0000257000   -0.0042569800
   0.0001299700    0.0000141100   -0.0042466100
  -0.0000132600   -0.0000043900   -0.0042559500
  -0.0001127300   -0.0000440700   -0.0042643400
   0.0001307100   -0.0000289800   -0.0042545400
  -0.0000188900   -0.0000360000   -0.0042242400
   0.0166892800    0.0032464100    0.0131816500
  -0.0022039900    0.0032147800   -0.0030246300
  -0.0006215200    0.0000441200   -0.0112885300
   0.0005735000   -0.0000366300   -0.0124252800
  -0.0005456800    0.0000089500   -0.0124451600
  -0.0001249000   -0.0000192800   -0.0124827700
   0.0000031800   -0.0001456500   -0.0123942800
   0.0000290300   -0.0001901700   -0.0124121900
  -0.0001281600    0.0000078200   -0.0125348200
   0.0000253100   -0.0000008200   -0.0128146200
  -0.0000036000   -0.0000031800   -0.0128354200
  -0.0000071300    0.0000130000   -0.0128025600
   0.0000293600    0.0000191300   -0.0128153800
  -0.0000317500    0.0000227600   -0.0128155300
  -0.0000005100   -0.0000098400   -0.0128496400
   0.0000332300   -0.0000138900   -0.0127509100
  -0.0000343900   -0.0000156900   -0.0127503700
  -0.0000015100   -0.0000076600   -0.0127797200
   0.0003024800   -0.0001939800    0.0126006100
  -0.0003004400   -0.0004246600    0.0126670400
   0.0001683500    0.0000501600    0.0124405600
   0.0000793600   -0.0000029100    0.0125716200
  -0.0001978800   -0.0000563300    0.0125080400
   0.0001290900   -0.0000586500    0.0124764100
   0.0003111900    0.0002160900    0.0128247200
  -0.0000448000    0.0003795300    0.0129537800
  -0.0000996300   -0.0000888700    0.0127300100
   0.0000809800   -0.0000745400    0.0124191200
   0.0000801600   -0.0000250700    0.0125757200
  -0.0002301300   -0.0000272500    0.0121362400
   0.0000005900    0.0000078600    0.0127898000
   0.0000158500    0.0000055600    0.0128004300
  -0.0000163000    0.0000041200    0.0127758600
   0.0000862900    0.0000737200    0.0123508300
  -0.0000646800    0.0000473600    0.0128100300
  -0.0000916600    0.0000501400    0.0123794800

1    
 -0.0044411840431782  -0.0059003793140047  -0.0067425075636208
   0.0529944400    0.0544568600    0.0734868300
  -0.0042665500    0.0008238500    0.0006472300
  -0.0088579900    0.0008438100    0.0038132200
  -0.0009533800   -0.0070792900   -0.0009017500
  -0.0006679700   -0.0001347700   -0.0042643800
   0.0004560700    0.0002873300   -0.0044610900
  -0.0009625900   -0.0024626700   -0.0049275300
  -0.0001018200    0.0000533300   -0.0040496700
  -0.0001132000   -0.0003692800   -0.0042481100
   0.0001094900    0.0000144100   -0.0045173900
  -0.0001891200    0.0000007600   -0.0045002400
   0.0000943500    0.0000005800   -0.0045138400
   0.0000115000    0.0000283400   -0.0045583000
  -0.0001370000    0.0000436000   -0.0045732800
   0.0001232300    0.0000530500   -0.0045713900
   0.0000111200   -0.0000466900   -0.0044817900
  -0.0001265600   -0.0000394600   -0.0044853200
   0.0001132400   -0.0000484300   -0.0044829400
   0.0055783100   -0.0003058700    0.0005239500
  -0.0038996300   -0.0059713700   -0.0009220900
  -0.0004691800    0.0000603400    0.0044635800
   0.0002245600   -0.0008896500    0.0042708800
  -0.0001499800   -0.0008847900    0.0038426300
  -0.0001052500   -0.0001598600    0.0042848800
  -0.0019434400   -0.0000992200    0.0056914400
   0.0036341400    0.0055889300    0.0042039600
  -0.0004723000    0.0000624800    0.0044727600
  -0.0000233500    0.0000571500    0.0038646800
   0.0003473500   -0.0000847400    0.0040573300
  -0.0003477000   -0.0002220300    0.0039283200
  -0.0001243600   -0.0000144000    0.0044681900
   0.0001485100   -0.0000152600    0.0044673100
  -0.0000268600   -0.0000000100    0.0044401000
  -0.0002123200   -0.0000583400    0.0038731200
   0.0005352100    0.0000845900    0.0040641800
  -0.0003462800   -0.0000547000    0.0040631700
  -0.0021692700   -0.0176626500   -0.0041534100
  -0.0002359800   -0.0002665100    0.0044101800
   0.0002908400   -0.0002370900    0.0039950700
   0.0002111400    0.0022187000    0.0035815600
  -0.0000007100    0.0001013400    0.0041558500
   0.0000824300    0.0001037000    0.0042429700
  -0.0021555900   -0.0145735800    0.0026283900
  -0.0002291100   -0.0002023400    0.0041537900
   0.0002683400   -0.0002427700    0.0037231400
  -0.0000199400   -0.0000188500    0.0042420400
  -0.0000902300    0.0000140800    0.0042925600
   0.0001150700   -0.0000019200    0.0042181900
  -0.0000029200    0.0000027800    0.0041683300
  -0.0001102700    0.0000012300    0.0041572700
   0.0001128600    0.0000030200    0.0041514300
  -0.0000203300    0.0000257900    0.0042268300
  -0.0001421200    0.0000106500    0.0042689100
   0.0001671900    0.0000242800    0.0041980100
  -0.0004808800   -0.0046180200   -0.0148177400
  -0.0213351000   -0.0046220700   -0.0293669700
   0.0010811100   -0.0001430600   -0.0048365800
  -0.0004522500    0.0004510500   -0.0042780000
   0.0002753300    0.0007198900   -0.0042023400
   0.0000353200   -0.0000475600   -0.0041744000
  -0.0001033500    0.0006898400   -0.0040418700
  -0.0000703400    0.0004170000   -0.0039645500
   0.0000364600    0.0001340800   -0.0041481000
  -0.0001218400    0.0000080800   -0.0040366200
   0.0001016800    0.0000110900   -0.0040656800
   0.0000209300    0.0000459600   -0.0040534900
  -0.0001240100   -0.0000358200   -0.0040563500
   0.0001145900   -0.0000399500   -0.0040617400
   0.0000103700   -0.0000144800   -0.0040398700
  -0.0001212100    0.0000487700   -0.0040711400
   0.0001107400    0.0000492700   -0.0040784600
   0.0000114500    0.0000467000   -0.0040845300
  -0.0176365600   -0.0031614000   -0.0395266500
   0.0020808500   -0.0031958400   -0.0222878500
   0.0006422100   -0.0000426200   -0.0141423000
  -0.0005529800    0.0000311600   -0.0129929700
   0.0005368300   -0.0000104600   -0.0129755800
   0.0001124400    0.0000170500   -0.0129470600
   0.0000332900    0.0001530900   -0.0129848800
  -0.0000484500    0.0001963000   -0.0129645500
   0.0001125200   -0.0000046900   -0.0128753900
   0.0000103800    0.0000065600   -0.0126223300
  -0.0000172800    0.0000057700   -0.0125986700
  -0.0000077500   -0.0000045500   -0.0126672000
  -0.0000004000   -0.0000225700   -0.0126399200
   0.0000017700   -0.0000316200   -0.0126317200
   0.0000013600   -0.0000078900   -0.0126207900
   0.0000099800    0.0000128200   -0.0127008600
  -0.0000097100    0.0000220700   -0.0126937000
   0.0000024800    0.0000189400   -0.0126948500
  -0.0003100600    0.0001985900    0.0128413700
   0.0003793500    0.0004052200    0.0127332700
  -0.0002392600   -0.0000602600    0.0129610000
  -0.0000921600    0.0000114600    0.0129093200
   0.0002535100    0.0000564600    0.0129146800
  -0.0001716400    0.0000570400    0.0129419300
  -0.0003031700   -0.0002219100    0.0125972300
   0.0000993300   -0.0003769300    0.0124231600
   0.0000290800    0.0000928500    0.0126578200
  -0.0000764800    0.0000781100    0.0130390400
  -0.0000283600    0.0000326200    0.0128335900
   0.0001747900    0.0000329500    0.0132703600
  -0.0000035400   -0.0000213300    0.0126838300
   0.0000504500   -0.0000197700    0.0126441600
  -0.0000467700   -0.0000201100    0.0126515100
  -0.0000793600   -0.0000662900    0.0130989700
   0.0001138400   -0.0000395300    0.0125910300
   0.0000344200   -0.0000404900    0.0130236900

37   
  0.0044411840431782   0.0059003793140047   0.0067425075636208
   0.0021839100    0.0197207400    0.0022194800
   0.0001544100    0.0000669300   -0.0043596400
  -0.0002074400    0.0000816900   -0.0041662500
   0.0021652100    0.0125824100   -0.0010394300
   0.0002105100    0.0004105300   -0.0043742000
  -0.0002555500    0.0003910700   -0.0041754500
  -0.0001967800   -0.0022153100   -0.0037672200
  -0.0002406500   -0.0000995600   -0.0043617800
   0.0001419000   -0.0001007700   -0.0044542700
   0.0000235400   -0.0000097500   -0.0043703300
  -0.0000820100   -0.0000030600   -0.0044144200
   0.0000543300   -0.0000363900   -0.0043995500
   0.0000236100   -0.0000015700   -0.0043824600
  -0.0001023400   -0.0000201800   -0.0044165800
   0.0000745400    0.0000124700   -0.0044028500
   0.0000065400    0.0000030200   -0.0043348900
  -0.0001318500    0.0000010600   -0.0043425200
   0.0001258400    0.0000015000   -0.0043417400
  -0.0003770800    0.0045838100    0.0153141600
   0.0233022200    0.0045740100    0.0300212000
  -0.0010859500    0.0001319900    0.0049484300
   0.0001902100   -0.0002951900    0.0042811600
  -0.0000047300   -0.0005650400    0.0042000900
  -0.0000469700   -0.0000183200    0.0043598300
  -0.0001443100   -0.0008338800    0.0043306800
   0.0003341400   -0.0005643800    0.0042492700
  -0.0000509800   -0.0000526500    0.0042066200
  -0.0001419900   -0.0000033800    0.0042630600
   0.0001627200   -0.0000024700    0.0042684600
  -0.0000200500   -0.0000366700    0.0042623300
  -0.0001220100   -0.0000115600    0.0043241100
   0.0001401500   -0.0000077400    0.0043377600
  -0.0000183100   -0.0000402300    0.0043041700
  -0.0001281500   -0.0000030800    0.0042771900
   0.0001452500   -0.0000074100    0.0042890900
  -0.0000172800    0.0000023000    0.0042606500
  -0.0359191700   -0.0682910600   -0.0519836700
   0.0013198700   -0.0000811500    0.0036824600
   0.0023590900   -0.0000676100    0.0031142100
  -0.0003268400    0.0044354000    0.0032414000
  -0.0002111900    0.0000151100    0.0041937300
   0.0001862400    0.0000656200    0.0041574400
  -0.0003292900    0.0045045600    0.0031749100
  -0.0001217100    0.0000852300    0.0041998900
   0.0001019400    0.0000265500    0.0041664900
  -0.0000084900   -0.0000114600    0.0042549900
  -0.0001168300    0.0000019700    0.0042574900
   0.0001292800    0.0000019000    0.0042574300
   0.0000035900    0.0000109200    0.0042608000
  -0.0001175800    0.0000174400    0.0042537800
   0.0001167200    0.0000041300    0.0042402600
   0.0000017600    0.0000106600    0.0042949100
  -0.0001278800    0.0000002500    0.0042800800
   0.0001290900    0.0000138400    0.0042682600
   0.0026854300    0.0052611700   -0.0063666000
  -0.0011770000    0.0006934500   -0.0050838700
  -0.0000196300    0.0000175300   -0.0042391900
  -0.0034306700    0.0043291000   -0.0031560200
   0.0049740700    0.0090132600   -0.0018364500
  -0.0000075500   -0.0000005300   -0.0042024700
  -0.0001240300    0.0009618900   -0.0042314100
   0.0002094500    0.0009641800   -0.0041767200
   0.0000167200    0.0000335500   -0.0042182300
  -0.0001125600    0.0000032700   -0.0041478300
   0.0001043100   -0.0000123900   -0.0041542300
   0.0000102000    0.0000066600   -0.0041465900
  -0.0001243900    0.0000014500   -0.0041267200
   0.0001205100    0.0000147600   -0.0041349200
   0.0000060100    0.0000144600   -0.0041267900
  -0.0001110600    0.0000273400   -0.0041306300
   0.0001235600    0.0000294500   -0.0041340100
  -0.0000106600    0.0000192700   -0.0041253000
   0.0026022100    0.0030158900   -0.0105187100
  -0.0015571800    0.0015368800   -0.0113776700
  -0.0000162100   -0.0000056800   -0.0126100700
   0.0009823800   -0.0019020000   -0.0122002400
   0.0000831800   -0.0003963100   -0.0130860200
  -0.0000150800    0.0000234300   -0.0126676700
  -0.0000709700   -0.0001609900   -0.0127287100
   0.0001291500   -0.0001612700   -0.0127688000
  -0.0000051200    0.0000265800   -0.0127009000
   0.0000352700    0.0000131000   -0.0127211300
  -0.0000386400    0.0000263100   -0.0127130300
   0.0000375500   -0.0000116200   -0.0126144200
   0.0000265700   -0.0000025000   -0.0127308000
  -0.0000311600   -0.0000144200   -0.0127178600
   0.0000386600    0.0000221400   -0.0126494700
   0.0000204500   -0.0000059400   -0.0127374700
  -0.0000137200   -0.0000067400   -0.0127144200
  -0.0000045000   -0.0000056400   -0.0127412500
  -0.0006480700   -0.0005277500    0.0191678000
   0.0028438300   -0.0006557400    0.0147013300
  -0.0006423300   -0.0006496300    0.0122914000
  -0.0000115100   -0.0000661000    0.0127454300
   0.0001547300    0.0000475400    0.0127920400
  -0.0001602400    0.0000220200    0.0128265800
  -0.0000087800   -0.0000326400    0.0126887500
  -0.0000996500    0.0000611600    0.0125496200
   0.0000910600    0.0000802300    0.0125978800
  -0.0000057100    0.0000309900    0.0127248300
   0.0000516800    0.0000114100    0.0127013300
  -0.0000456800    0.0000094300    0.0126851800
   0.0000103500    0.0000255900    0.0127364800
   0.0000230700    0.0000064000    0.0127084700
  -0.0000274100    0.0000012200    0.0127227400
   0.0000106000   -0.0000437700    0.0127312800
   0.0000105500   -0.0000370000    0.0127111100
  -0.0000152100   -0.0000297000    0.0127253500

37   
 -0.0044411840431782  -0.0059003793140047  -0.0067425075636208
  -0.0020897100   -0.0206267500   -0.0110275600
  -0.0004049500   -0.0000775400   -0.0043840800
   0.0004547200   -0.0000880700   -0.0045736100
  -0.0021085700   -0.0121574700   -0.0077343600
  -0.0004409900   -0.0004008100   -0.0043723700
   0.0004977200   -0.0003968300   -0.0045572000
   0.0001953000    0.0022565200   -0.0049435300
  -0.0000194500    0.0001062900   -0.0043719700
   0.0001165000    0.0001063000   -0.0042748800
  -0.0000229300    0.0000030400   -0.0043456100
  -0.0001781200   -0.0000025600   -0.0043150600
   0.0002053000    0.0000327400   -0.0043310400
  -0.0000229800    0.0000074300   -0.0043357900
  -0.0001571500    0.0000253400   -0.0043120600
   0.0001843700   -0.0000105100   -0.0043266600
  -0.0000039200   -0.0000026500   -0.0043831500
  -0.0001307400   -0.0000007900   -0.0043857100
   0.0001342200   -0.0000005100   -0.0043864200
   0.0000968000   -0.0046251900   -0.0067151700
  -0.0219458800   -0.0046301300   -0.0204045000
   0.0010967000   -0.0001405400    0.0036317700
  -0.0004606900    0.0003186800    0.0043457600
   0.0002748600    0.0005935600    0.0044271500
   0.0000483900    0.0000224500    0.0042154300
  -0.0001102300    0.0008398300    0.0043049100
  -0.0000749400    0.0005648000    0.0043862900
   0.0000479300    0.0000572200    0.0043780400
  -0.0001235800    0.0000044200    0.0043678900
   0.0001028400    0.0000044300    0.0043584100
   0.0000204500    0.0000398000    0.0043171900
  -0.0001429600    0.0000141900    0.0043024500
   0.0001268000    0.0000138600    0.0042915400
   0.0000166100    0.0000431000    0.0042759400
  -0.0001349400   -0.0000003700    0.0043529800
   0.0001186600    0.0000003300    0.0043406600
   0.0000167300   -0.0000069600    0.0043194400
   0.0346301500    0.0689172700    0.0596358900
  -0.0015304200    0.0000711200    0.0048185900
  -0.0021343000    0.0000701000    0.0053911900
   0.0003245300   -0.0044555900    0.0052544400
  -0.0000332600   -0.0000128700    0.0042666700
   0.0000487300   -0.0000788100    0.0043196800
   0.0003279800   -0.0046200500    0.0053457100
  -0.0001276100   -0.0000864000    0.0042596500
   0.0001446100   -0.0000120300    0.0043110300
   0.0000116600    0.0000253100    0.0042066800
  -0.0001216500    0.0000131200    0.0041757000
   0.0001062700    0.0000155100    0.0041679900
  -0.0000016500   -0.0000253000    0.0041850800
  -0.0001241500   -0.0000304500    0.0041718800
   0.0001222300   -0.0000146300    0.0041691500
   0.0000014200   -0.0000075000    0.0041658300
  -0.0001170300    0.0000001700    0.0041452900
   0.0001120600   -0.0000211600    0.0041474900
  -0.0029309000   -0.0052673400   -0.0020148700
   0.0014156400   -0.0006658800   -0.0033519000
   0.0000101300    0.0000156000   -0.0041364000
   0.0031568700   -0.0043507200   -0.0052179100
  -0.0046206300   -0.0088519200   -0.0065305500
   0.0000061600   -0.0000116700   -0.0041554900
  -0.0001081300   -0.0009858100   -0.0041097900
   0.0000342400   -0.0009777700   -0.0041681300
  -0.0000265100   -0.0000556200   -0.0041261500
  -0.0001226000   -0.0000113100   -0.0041779700
   0.0001313500    0.0000081000   -0.0041761000
  -0.0000112400   -0.0000049700   -0.0041698700
  -0.0001115500    0.0000039700   -0.0042057600
   0.0001195100   -0.0000207200   -0.0042095200
  -0.0000098000   -0.0000123300   -0.0041906200
  -0.0001250500   -0.0000260400   -0.0041760800
   0.0001189200   -0.0000220900   -0.0041777100
   0.0000043100   -0.0000240400   -0.0041702000
  -0.0026258000   -0.0030794600   -0.0148859800
   0.0015351700   -0.0015440700   -0.0139685400
   0.0000140700    0.0000125900   -0.0127736300
  -0.0009447900    0.0018933500   -0.0131613900
  -0.0001133300    0.0003873300   -0.0122586900
   0.0000031800   -0.0000230600   -0.0127133100
   0.0001176200    0.0001606200   -0.0127277900
  -0.0001488800    0.0001611300   -0.0126977800
  -0.0000203300   -0.0000331700   -0.0127708700
   0.0000028200   -0.0000218600   -0.0127043300
   0.0000096400   -0.0000315800   -0.0127087500
  -0.0000464700    0.0000008300   -0.0128419000
   0.0000141700    0.0000263900   -0.0126941400
  -0.0000055700    0.0000348000   -0.0126938500
  -0.0000425300   -0.0000038100   -0.0127954800
   0.0000114700   -0.0000075800   -0.0127204500
  -0.0000238900   -0.0000065800   -0.0127156900
   0.0000101400   -0.0000007900   -0.0127355200
   0.0006530700    0.0004955900    0.0062568800
  -0.0027513600    0.0006410600    0.0106492200
   0.0005759600    0.0006443500    0.0130543600
   0.0000011200    0.0000661500    0.0127281000
  -0.0000979100   -0.0000491400    0.0126220900
   0.0001149700   -0.0000193700    0.0125842900
   0.0000067300    0.0000359400    0.0127196800
   0.0001563800   -0.0000535000    0.0128230100
  -0.0001457900   -0.0000834800    0.0127913400
   0.0000085900   -0.0000285200    0.0127392500
  -0.0000002400    0.0000000500    0.0127147600
  -0.0000086400   -0.0000004700    0.0127337400
  -0.0000081300   -0.0000058800    0.0127355400
   0.0000373000    0.0000104100    0.0127243100
  -0.0000350700    0.0000081800    0.0127032700
  -0.0000048400    0.0000204500    0.0127489100
   0.0000327400    0.0000088400    0.0127246700
  -0.0000340400    0.0000103900    0.0127066000

73   
  0.0044411840431782   0.0059003793140047   0.0067425075636208
   0.0206607300    0.0031580100    0.0204231700
  -0.0007761400    0.0000514400   -0.0029297100
  -0.0050462800    0.0031915200    0.0072324500
   0.0000550900   -0.0003428500   -0.0039901800
  -0.0002558200   -0.0000539000   -0.0041562200
   0.0001028800    0.0001159600   -0.0043272500
  -0.0000072300    0.0001486900   -0.0038708300
  -0.0002585700    0.0000359300   -0.0041911800
   0.0001665900   -0.0003097700   -0.0042083400
   0.0000299700   -0.0000112200   -0.0044993600
  -0.0001329900    0.0000006300   -0.0044694700
   0.0001170200   -0.0000104700   -0.0045131400
   0.0000141300    0.0000463200   -0.0044750500
  -0.0001401800    0.0000415700   -0.0044977900
   0.0001220100    0.0000500100   -0.0044875900
   0.0000006200   -0.0000317300   -0.0044658500
  -0.0001403800   -0.0000484900   -0.0044958700
   0.0001358100   -0.0000358300   -0.0044772200
   0.0001850400   -0.0001338900    0.0041473400
  -0.0000853600   -0.0003125600    0.0040842600
   0.0000679300   -0.0000918200    0.0042537900
  -0.0000371800   -0.0000112600    0.0042202100
   0.0001061800   -0.0000576100    0.0040529800
  -0.0000601400   -0.0000577400    0.0042394700
   0.0001830200    0.0001636600    0.0045375100
   0.0005451000    0.0002748000    0.0044002000
  -0.0005567500    0.0000557300    0.0045678600
  -0.0000468700    0.0000428900    0.0039058700
   0.0003876400   -0.0000667200    0.0040949800
  -0.0004116600   -0.0001716600    0.0039897900
  -0.0001237300    0.0000135900    0.0043880200
   0.0001388800    0.0000110600    0.0043965100
  -0.0000171700    0.0000113600    0.0043769100
  -0.0000469700   -0.0000480700    0.0040327300
   0.0003794800    0.0000826700    0.0041621100
  -0.0004019400    0.0001857800    0.0040586300
   0.0022445000    0.0021495600    0.0075453100
  -0.0001279900    0.0000059700    0.0042956000
  -0.0010466800    0.0008843900    0.0058082400
   0.0000241300   -0.0001615300    0.0041997800
  -0.0000983400    0.0000169000    0.0043001000
   0.0001221200   -0.0001670900    0.0043560600
   0.0002132600   -0.0009817600    0.0044614200
  -0.0001288900    0.0000186200    0.0043028500
   0.0009639600    0.0002735800    0.0027585800
  -0.0000185400    0.0000040900    0.0042339600
  -0.0000816900    0.0000174900    0.0042865100
   0.0001329700   -0.0000022600    0.0042033600
  -0.0000115700    0.0000158600    0.0042548400
  -0.0001293900    0.0000050800    0.0042319500
   0.0001405300    0.0000219000    0.0042391800
  -0.0000111000   -0.0000177900    0.0042352900
  -0.0000849400   -0.0000219700    0.0043257800
   0.0001270900   -0.0000200500    0.0042026200
  -0.0007959300   -0.0005142300    0.0021902700
   0.0030941400   -0.0006512200   -0.0023375900
  -0.0007341900   -0.0006442100   -0.0045623000
  -0.0001299300   -0.0000270400   -0.0042542500
   0.0001121300    0.0002598800   -0.0042723200
   0.0000021000    0.0000533800   -0.0042917400
  -0.0001292600   -0.0000861300   -0.0042207500
   0.0000697900   -0.0001572500   -0.0042241100
   0.0000428800    0.0000476500   -0.0042371900
  -0.0001185900    0.0000040700   -0.0041156600
   0.0001241500   -0.0000082400   -0.0041175000
  -0.0000069200   -0.0000076500   -0.0041378100
  -0.0001107300    0.0000244300   -0.0041258600
   0.0001016800    0.0000002400   -0.0041357000
   0.0000137600   -0.0000038000   -0.0041204500
  -0.0001142300   -0.0000168900   -0.0041897100
   0.0001010500   -0.0000121300   -0.0041698600
   0.0000182200   -0.0000079400   -0.0041585400
  -0.0270811200   -0.0076884400   -0.0622715600
   0.0025806300   -0.0004136000   -0.0135327800
   0.0045062100   -0.0004041500   -0.0147991900
  -0.0001483100    0.0001360600   -0.0128357500
   0.0000419600   -0.0000113300   -0.0126983400
   0.0000710300    0.0000255800   -0.0127008300
  -0.0001401800    0.0001711300   -0.0128337000
   0.0000731900    0.0000440600   -0.0126917400
   0.0000319000    0.0000089500   -0.0127106600
   0.0000081500   -0.0000044100   -0.0126059100
  -0.0000014300   -0.0000052000   -0.0125980100
  -0.0000082900   -0.0000052700   -0.0126024500
   0.0000178600   -0.0000070500   -0.0125992400
  -0.0000141900   -0.0000126000   -0.0125735300
   0.0000008300   -0.0000141700   -0.0125838800
   0.0000167600    0.0000095100   -0.0125755100
  -0.0000207400    0.0000204300   -0.0125716600
   0.0000084800    0.0000222500   -0.0125811200
  -0.0001238400   -0.0000087000    0.0126919200
   0.0003191300    0.0001493200    0.0127871000
  -0.0000698700    0.0000146200    0.0127062900
  -0.0000719000    0.0000183000    0.0126111900
   0.0001009300    0.0000175800    0.0126096000
  -0.0000096100    0.0000132100    0.0126029700
  -0.0000810500    0.0000015800    0.0127024400
   0.0003181200   -0.0001060300    0.0125657900
  -0.0001123800   -0.0000155100    0.0127090200
   0.0000196800    0.0001786800    0.0127263200
   0.0000112600    0.0000178100    0.0126580700
   0.0005570400   -0.0005278900    0.0136993100
  -0.0000096100   -0.0000020200    0.0126103700
   0.0000257600    0.0000002300    0.0126081000
  -0.0000143300   -0.0000031300    0.0126042600
  -0.0009280200    0.0007548900    0.0138140200
   0.0000140900   -0.0000028300    0.0126236400
   0.0014894900    0.0014481700    0.0147653700

73   
 -0.0044411840431782  -0.0059003793140047  -0.0067425075636208
  -0.0197365900   -0.0032712800   -0.0282208900
   0.0005042400   -0.0000520200   -0.0057930000
   0.0052995400   -0.0032392500   -0.0160343700
  -0.0000531900    0.0003377800   -0.0047081800
   0.0000014900    0.0000548700   -0.0045606000
   0.0001492100   -0.0001088100   -0.0043892400
   0.0000036100   -0.0001379800   -0.0048320900
  -0.0000003100   -0.0000350100   -0.0045294300
   0.0000931700    0.0003068400   -0.0045118400
  -0.0000258200    0.0000074200   -0.0042000600
  -0.0001285500   -0.0000036100   -0.0042439000
   0.0001395600    0.0000073600   -0.0042008400
  -0.0000128700   -0.0000420000   -0.0042278100
  -0.0001193500   -0.0000404300   -0.0042133700
   0.0001355600   -0.0000483100   -0.0042251600
  -0.0000026700    0.0000296200   -0.0042402600
  -0.0001192300    0.0000493900   -0.0042195300
   0.0001253100    0.0000359300   -0.0042377600
  -0.0004479400    0.0001395900    0.0044661900
   0.0003489500    0.0003016900    0.0045181400
  -0.0000726000    0.0000972200    0.0043008100
  -0.0002341800    0.0000140200    0.0043852100
   0.0001611700    0.0000600500    0.0045514600
   0.0000642300    0.0000587800    0.0043137800
  -0.0004472900   -0.0001713800    0.0040756400
  -0.0002733500   -0.0002720600    0.0042128100
   0.0005528900   -0.0000640500    0.0039916800
  -0.0002208800   -0.0000467200    0.0047118100
  -0.0001194000    0.0000643900    0.0045170300
   0.0004106800    0.0001694500    0.0045732500
  -0.0001434100   -0.0000105900    0.0042244100
   0.0001270100   -0.0000092000    0.0042191900
   0.0000178400   -0.0000088700    0.0041874000
  -0.0002207100    0.0000448600    0.0045787100
  -0.0001166900   -0.0000850800    0.0044488200
   0.0004092200   -0.0001921500    0.0045056900
  -0.0021839600   -0.0021052600    0.0011067600
  -0.0001069400   -0.0000012000    0.0042301100
   0.0012589700   -0.0008827300    0.0027088800
  -0.0000406400    0.0001676600    0.0043586600
  -0.0001412100   -0.0000288700    0.0042188900
   0.0001304400    0.0001639400    0.0042040200
  -0.0002176400    0.0009686000    0.0040833900
  -0.0001048200   -0.0000163200    0.0042156300
  -0.0007295700   -0.0002656200    0.0057312800
   0.0000300600   -0.0000217100    0.0041815500
  -0.0001590800   -0.0000326300    0.0041006200
   0.0000950300    0.0000091300    0.0041773200
  -0.0000025500    0.0000009800    0.0041725300
  -0.0001120300   -0.0000012800    0.0041574000
   0.0001136400    0.0000049600    0.0041579300
   0.0000121800    0.0000173300    0.0041935600
  -0.0001604600    0.0000311000    0.0040646200
   0.0001139400   -0.0000166500    0.0041892600
   0.0005415900    0.0004898900   -0.0105743200
  -0.0027987100    0.0006358000   -0.0060904500
   0.0007461900    0.0006378400   -0.0038283700
  -0.0001068100    0.0000708200   -0.0041722900
   0.0001302300   -0.0002431800   -0.0041608800
  -0.0000039500   -0.0000564600   -0.0041543200
  -0.0001057900    0.0000395100   -0.0041993100
   0.0001608300    0.0001465500   -0.0041897900
  -0.0000356200   -0.0000388300   -0.0041860600
  -0.0001138500   -0.0000217400   -0.0041466300
   0.0001181500    0.0000061100   -0.0041607500
  -0.0000039700    0.0000049000   -0.0041116900
  -0.0001298000    0.0000115700   -0.0041328600
   0.0001415500   -0.0000036000   -0.0041242000
  -0.0000169800    0.0000155000   -0.0041284200
  -0.0001313100   -0.0000021700   -0.0041056800
   0.0001338000    0.0000149800   -0.0041137900
  -0.0000077000   -0.0000010400   -0.0041164100
   0.0262129900    0.0079082200    0.0360617100
  -0.0026490000    0.0004020000   -0.0117212900
  -0.0045126300    0.0004101200   -0.0104928900
   0.0001702400   -0.0001310400   -0.0124465000