phonopy:
  version: "2.38.2"
  frequency_unit_conversion_factor: 15.633302
  symmetry_tolerance: 1.00000e-05
  configuration:
    cell_filename: "POSCAR"
    create_displacements: ".true."
    dim: "3 3 2"

physical_unit:
  atomic_mass: "AMU"
  length: "angstrom"

space_group:
  type: "Pmmn"
  number: 59
  Hall_symbol: "P 2 2ab -1ab"

supercell_matrix:
- [   3,   0,   0 ]
- [   0,   3,   0 ]
- [   0,   0,   2 ]

primitive_cell:
  lattice:
  - [     3.531857736276661,     0.000000000000000,     0.000000000000000 ] # a
  - [     0.000000000000000,     4.692284788139760,     0.000000000000000 ] # b
  - [     0.000000000000000,     0.000000000000000,     8.042982660352576 ] # c
  points:
  - symbol: Cr # 1
    coordinates: [  0.750000000000000,  0.250000000000000,  0.221729093230269 ]
    mass: 51.996100
  - symbol: Cr # 2
    coordinates: [  0.250000000000000,  0.750000000000000,  0.477671270969733 ]
    mass: 51.996100
  - symbol: S # 3
    coordinates: [  0.750000000000000,  0.750000000000000,  0.278658549566222 ]
    mass: 32.065000
  - symbol: S # 4
    coordinates: [  0.250000000000000,  0.250000000000000,  0.420741094733779 ]
    mass: 32.065000
  - symbol: Br # 5
    coordinates: [  0.250000000000000,  0.250000000000000,  0.000505557346863 ]
    mass: 79.904000
  - symbol: Br # 6
    coordinates: [  0.750000000000000,  0.750000000000000,  0.698894434153132 ]
    mass: 79.904000
  reciprocal_lattice: # without 2pi
  - [     0.283137112157359,     0.000000000000000,     0.000000000000000 ] # a*
  - [     0.000000000000000,     0.213115794362611,     0.000000000000000 ] # b*
  - [     0.000000000000000,     0.000000000000000,     0.124331985064377 ] # c*

unit_cell:
  lattice:
  - [     3.531857736276661,    -0.000000000000000,     0.000000000000000 ] # a
  - [    -0.000000000000000,     4.692284788139760,     0.000000000000000 ] # b
  - [     0.000000000000000,     0.000000000000000,     8.042982660352576 ] # c
  points:
  - symbol: Cr # 1
    coordinates: [  0.750000000000000,  0.250000000000000,  0.221729093230269 ]
    mass: 51.996100
    reduced_to: 1
  - symbol: Cr # 2
    coordinates: [  0.250000000000000,  0.750000000000000,  0.477671270969733 ]
    mass: 51.996100
    reduced_to: 2
  - symbol: S # 3
    coordinates: [  0.750000000000000,  0.750000000000000,  0.278658549566222 ]
    mass: 32.065000
    reduced_to: 3
  - symbol: S # 4
    coordinates: [  0.250000000000000,  0.250000000000000,  0.420741094733779 ]
    mass: 32.065000
    reduced_to: 4
  - symbol: Br # 5
    coordinates: [  0.250000000000000,  0.250000000000000,  0.000505557346863 ]
    mass: 79.904000
    reduced_to: 5
  - symbol: Br # 6
    coordinates: [  0.750000000000000,  0.750000000000000,  0.698894434153132 ]
    mass: 79.904000
    reduced_to: 6

supercell:
  lattice:
  - [    10.595573208829983,     0.000000000000000,     0.000000000000000 ] # a
  - [     0.000000000000000,    14.076854364419281,     0.000000000000000 ] # b
  - [     0.000000000000000,     0.000000000000000,    16.085965320705153 ] # c
  points:
  - symbol: Cr # 1
    coordinates: [  0.250000000000000,  0.083333333333333,  0.110864546615135 ]
    mass: 51.996100
    reduced_to: 1
  - symbol: Cr # 2
    coordinates: [  0.583333333333333,  0.083333333333333,  0.110864546615135 ]
    mass: 51.996100
    reduced_to: 1
  - symbol: Cr # 3
    coordinates: [  0.916666666666667,  0.083333333333333,  0.110864546615135 ]
    mass: 51.996100
    reduced_to: 1
  - symbol: Cr # 4
    coordinates: [  0.250000000000000,  0.416666666666667,  0.110864546615135 ]
    mass: 51.996100
    reduced_to: 1
  - symbol: Cr # 5
    coordinates: [  0.583333333333333,  0.416666666666667,  0.110864546615135 ]
    mass: 51.996100
    reduced_to: 1
  - symbol: Cr # 6
    coordinates: [  0.916666666666667,  0.416666666666667,  0.110864546615135 ]
    mass: 51.996100
    reduced_to: 1
  - symbol: Cr # 7
    coordinates: [  0.250000000000000,  0.750000000000000,  0.110864546615135 ]
    mass: 51.996100
    reduced_to: 1
  - symbol: Cr # 8
    coordinates: [  0.583333333333333,  0.750000000000000,  0.110864546615135 ]
    mass: 51.996100
    reduced_to: 1
  - symbol: Cr # 9
    coordinates: [  0.916666666666667,  0.750000000000000,  0.110864546615135 ]
    mass: 51.996100
    reduced_to: 1
  - symbol: Cr # 10
    coordinates: [  0.250000000000000,  0.083333333333333,  0.610864546615135 ]
    mass: 51.996100
    reduced_to: 1
  - symbol: Cr # 11
    coordinates: [  0.583333333333333,  0.083333333333333,  0.610864546615135 ]
    mass: 51.996100
    reduced_to: 1
  - symbol: Cr # 12
    coordinates: [  0.916666666666667,  0.083333333333333,  0.610864546615135 ]
    mass: 51.996100
    reduced_to: 1
  - symbol: Cr # 13
    coordinates: [  0.250000000000000,  0.416666666666667,  0.610864546615135 ]
    mass: 51.996100
    reduced_to: 1
  - symbol: Cr # 14
    coordinates: [  0.583333333333333,  0.416666666666667,  0.610864546615135 ]
    mass: 51.996100
    reduced_to: 1
  - symbol: Cr # 15
    coordinates: [  0.916666666666667,  0.416666666666667,  0.610864546615135 ]
    mass: 51.996100
    reduced_to: 1
  - symbol: Cr # 16
    coordinates: [  0.250000000000000,  0.750000000000000,  0.610864546615135 ]
    mass: 51.996100
    reduced_to: 1
  - symbol: Cr # 17
    coordinates: [  0.583333333333333,  0.750000000000000,  0.610864546615135 ]
    mass: 51.996100
    reduced_to: 1
  - symbol: Cr # 18
    coordinates: [  0.916666666666667,  0.750000000000000,  0.610864546615135 ]
    mass: 51.996100
    reduced_to: 1
  - symbol: Cr # 19
    coordinates: [  0.083333333333333,  0.250000000000000,  0.238835635484867 ]
    mass: 51.996100
    reduced_to: 19
  - symbol: Cr # 20
    coordinates: [  0.416666666666667,  0.250000000000000,  0.238835635484867 ]
    mass: 51.996100
    reduced_to: 19
  - symbol: Cr # 21
    coordinates: [  0.750000000000000,  0.250000000000000,  0.238835635484867 ]
    mass: 51.996100
    reduced_to: 19
  - symbol: Cr # 22
    coordinates: [  0.083333333333333,  0.583333333333333,  0.238835635484867 ]
    mass: 51.996100
    reduced_to: 19
  - symbol: Cr # 23
    coordinates: [  0.416666666666667,  0.583333333333333,  0.238835635484867 ]
    mass: 51.996100
    reduced_to: 19
  - symbol: Cr # 24
    coordinates: [  0.750000000000000,  0.583333333333333,  0.238835635484867 ]
    mass: 51.996100
    reduced_to: 19
  - symbol: Cr # 25
    coordinates: [  0.083333333333333,  0.916666666666667,  0.238835635484867 ]
    mass: 51.996100
    reduced_to: 19
  - symbol: Cr # 26
    coordinates: [  0.416666666666667,  0.916666666666667,  0.238835635484867 ]
    mass: 51.996100
    reduced_to: 19
  - symbol: Cr # 27
    coordinates: [  0.750000000000000,  0.916666666666667,  0.238835635484867 ]
    mass: 51.996100
    reduced_to: 19
  - symbol: Cr # 28
    coordinates: [  0.083333333333333,  0.250000000000000,  0.738835635484867 ]
    mass: 51.996100
    reduced_to: 19
  - symbol: Cr # 29
    coordinates: [  0.416666666666667,  0.250000000000000,  0.738835635484867 ]
    mass: 51.996100
    reduced_to: 19
  - symbol: Cr # 30
    coordinates: [  0.750000000000000,  0.250000000000000,  0.738835635484867 ]
    mass: 51.996100
    reduced_to: 19
  - symbol: Cr # 31
    coordinates: [  0.083333333333333,  0.583333333333333,  0.738835635484867 ]
    mass: 51.996100
    reduced_to: 19
  - symbol: Cr # 32
    coordinates: [  0.416666666666667,  0.583333333333333,  0.738835635484867 ]
    mass: 51.996100
    reduced_to: 19
  - symbol: Cr # 33
    coordinates: [  0.750000000000000,  0.583333333333333,  0.738835635484867 ]
    mass: 51.996100
    reduced_to: 19
  - symbol: Cr # 34
    coordinates: [  0.083333333333333,  0.916666666666667,  0.738835635484867 ]
    mass: 51.996100
    reduced_to: 19
  - symbol: Cr # 35
    coordinates: [  0.416666666666667,  0.916666666666667,  0.738835635484867 ]
    mass: 51.996100
    reduced_to: 19
  - symbol: Cr # 36
    coordinates: [  0.750000000000000,  0.916666666666667,  0.738835635484867 ]
    mass: 51.996100
    reduced_to: 19
  - symbol: S # 37
    coordinates: [  0.250000000000000,  0.250000000000000,  0.139329274783111 ]
    mass: 32.065000
    reduced_to: 37
  - symbol: S # 38
    coordinates: [  0.583333333333333,  0.250000000000000,  0.139329274783111 ]
    mass: 32.065000
    reduced_to: 37
  - symbol: S # 39
    coordinates: [  0.916666666666667,  0.250000000000000,  0.139329274783111 ]
    mass: 32.065000
    reduced_to: 37
  - symbol: S # 40
    coordinates: [  0.250000000000000,  0.583333333333333,  0.139329274783111 ]
    mass: 32.065000
    reduced_to: 37
  - symbol: S # 41
    coordinates: [  0.583333333333333,  0.583333333333333,  0.139329274783111 ]
    mass: 32.065000
    reduced_to: 37
  - symbol: S # 42
    coordinates: [  0.916666666666667,  0.583333333333333,  0.139329274783111 ]
    mass: 32.065000
    reduced_to: 37
  - symbol: S # 43
    coordinates: [  0.250000000000000,  0.916666666666667,  0.139329274783111 ]
    mass: 32.065000
    reduced_to: 37
  - symbol: S # 44
    coordinates: [  0.583333333333333,  0.916666666666667,  0.139329274783111 ]
    mass: 32.065000
    reduced_to: 37
  - symbol: S # 45
    coordinates: [  0.916666666666667,  0.916666666666667,  0.139329274783111 ]
    mass: 32.065000
    reduced_to: 37
  - symbol: S # 46
    coordinates: [  0.250000000000000,  0.250000000000000,  0.639329274783111 ]
    mass: 32.065000
    reduced_to: 37
  - symbol: S # 47
    coordinates: [  0.583333333333333,  0.250000000000000,  0.639329274783111 ]
    mass: 32.065000
    reduced_to: 37
  - symbol: S # 48
    coordinates: [  0.916666666666667,  0.250000000000000,  0.639329274783111 ]
    mass: 32.065000
    reduced_to: 37
  - symbol: S # 49
    coordinates: [  0.250000000000000,  0.583333333333333,  0.639329274783111 ]
    mass: 32.065000
    reduced_to: 37
  - symbol: S # 50
    coordinates: [  0.583333333333333,  0.583333333333333,  0.639329274783111 ]
    mass: 32.065000
    reduced_to: 37
  - symbol: S # 51
    coordinates: [  0.916666666666667,  0.583333333333333,  0.639329274783111 ]
    mass: 32.065000
    reduced_to: 37
  - symbol: S # 52
    coordinates: [  0.250000000000000,  0.916666666666667,  0.639329274783111 ]
    mass: 32.065000
    reduced_to: 37
  - symbol: S # 53
    coordinates: [  0.583333333333333,  0.916666666666667,  0.639329274783111 ]
    mass: 32.065000
    reduced_to: 37
  - symbol: S # 54
    coordinates: [  0.916666666666667,  0.916666666666667,  0.639329274783111 ]
    mass: 32.065000
    reduced_to: 37
  - symbol: S # 55
    coordinates: [  0.083333333333333,  0.083333333333333,  0.210370547366890 ]
    mass: 32.065000
    reduced_to: 55
  - symbol: S # 56
    coordinates: [  0.416666666666667,  0.083333333333333,  0.210370547366890 ]
    mass: 32.065000
    reduced_to: 55
  - symbol: S # 57
    coordinates: [  0.750000000000000,  0.083333333333333,  0.210370547366890 ]
    mass: 32.065000
    reduced_to: 55
  - symbol: S # 58
    coordinates: [  0.083333333333333,  0.416666666666667,  0.210370547366890 ]
    mass: 32.065000
    reduced_to: 55
  - symbol: S # 59
    coordinates: [  0.416666666666667,  0.416666666666667,  0.210370547366890 ]
    mass: 32.065000
    reduced_to: 55
  - symbol: S # 60
    coordinates: [  0.750000000000000,  0.416666666666667,  0.210370547366890 ]
    mass: 32.065000
    reduced_to: 55
  - symbol: S # 61
    coordinates: [  0.083333333333333,  0.750000000000000,  0.210370547366890 ]
    mass: 32.065000
    reduced_to: 55
  - symbol: S # 62
    coordinates: [  0.416666666666667,  0.750000000000000,  0.210370547366890 ]
    mass: 32.065000
    reduced_to: 55
  - symbol: S # 63
    coordinates: [  0.750000000000000,  0.750000000000000,  0.210370547366890 ]
    mass: 32.065000
    reduced_to: 55
  - symbol: S # 64
    coordinates: [  0.083333333333333,  0.083333333333333,  0.710370547366890 ]
    mass: 32.065000
    reduced_to: 55
  - symbol: S # 65
    coordinates: [  0.416666666666667,  0.083333333333333,  0.710370547366890 ]
    mass: 32.065000
    reduced_to: 55
  - symbol: S # 66
    coordinates: [  0.750000000000000,  0.083333333333333,  0.710370547366890 ]
    mass: 32.065000
    reduced_to: 55
  - symbol: S # 67
    coordinates: [  0.083333333333333,  0.416666666666667,  0.710370547366890 ]
    mass: 32.065000
    reduced_to: 55
  - symbol: S # 68
    coordinates: [  0.416666666666667,  0.416666666666667,  0.710370547366890 ]
    mass: 32.065000
    reduced_to: 55
  - symbol: S # 69
    coordinates: [  0.750000000000000,  0.416666666666667,  0.710370547366890 ]
    mass: 32.065000
    reduced_to: 55
  - symbol: S # 70
    coordinates: [  0.083333333333333,  0.750000000000000,  0.710370547366890 ]
    mass: 32.065000
    reduced_to: 55
  - symbol: S # 71
    coordinates: [  0.416666666666667,  0.750000000000000,  0.710370547366890 ]
    mass: 32.065000
    reduced_to: 55
  - symbol: S # 72
    coordinates: [  0.750000000000000,  0.750000000000000,  0.710370547366890 ]
    mass: 32.065000
    reduced_to: 55
  - symbol: Br # 73
    coordinates: [  0.083333333333333,  0.083333333333333,  0.000252778673431 ]
    mass: 79.904000
    reduced_to: 73
  - symbol: Br # 74
    coordinates: [  0.416666666666667,  0.083333333333333,  0.000252778673431 ]
    mass: 79.904000
    reduced_to: 73
  - symbol: Br # 75
    coordinates: [  0.750000000000000,  0.083333333333333,  0.000252778673431 ]
    mass: 79.904000
    reduced_to: 73
  - symbol: Br # 76
    coordinates: [  0.083333333333333,  0.416666666666667,  0.000252778673431 ]
    mass: 79.904000
    reduced_to: 73
  - symbol: Br # 77
    coordinates: [  0.416666666666667,  0.416666666666667,  0.000252778673431 ]
    mass: 79.904000
    reduced_to: 73
  - symbol: Br # 78
    coordinates: [  0.750000000000000,  0.416666666666667,  0.000252778673431 ]
    mass: 79.904000
    reduced_to: 73
  - symbol: Br # 79
    coordinates: [  0.083333333333333,  0.750000000000000,  0.000252778673431 ]
    mass: 79.904000
    reduced_to: 73
  - symbol: Br # 80
    coordinates: [  0.416666666666667,  0.750000000000000,  0.000252778673431 ]
    mass: 79.904000
    reduced_to: 73
  - symbol: Br # 81
    coordinates: [  0.750000000000000,  0.750000000000000,  0.000252778673431 ]
    mass: 79.904000
    reduced_to: 73
  - symbol: Br # 82
    coordinates: [  0.083333333333333,  0.083333333333333,  0.500252778673431 ]
    mass: 79.904000
    reduced_to: 73
  - symbol: Br # 83
    coordinates: [  0.416666666666667,  0.083333333333333,  0.500252778673431 ]
    mass: 79.904000
    reduced_to: 73
  - symbol: Br # 84
    coordinates: [  0.750000000000000,  0.083333333333333,  0.500252778673431 ]
    mass: 79.904000
    reduced_to: 73
  - symbol: Br # 85
    coordinates: [  0.083333333333333,  0.416666666666667,  0.500252778673431 ]
    mass: 79.904000
    reduced_to: 73
  - symbol: Br # 86
    coordinates: [  0.416666666666667,  0.416666666666667,  0.500252778673431 ]
    mass: 79.904000
    reduced_to: 73
  - symbol: Br # 87
    coordinates: [  0.750000000000000,  0.416666666666667,  0.500252778673431 ]
    mass: 79.904000
    reduced_to: 73
  - symbol: Br # 88
    coordinates: [  0.083333333333333,  0.750000000000000,  0.500252778673431 ]
    mass: 79.904000
    reduced_to: 73
  - symbol: Br # 89
    coordinates: [  0.416666666666667,  0.750000000000000,  0.500252778673431 ]
    mass: 79.904000
    reduced_to: 73
  - symbol: Br # 90
    coordinates: [  0.750000000000000,  0.750000000000000,  0.500252778673431 ]
    mass: 79.904000
    reduced_to: 73
  - symbol: Br # 91
    coordinates: [  0.250000000000000,  0.250000000000000,  0.349447217076566 ]
    mass: 79.904000
    reduced_to: 91
  - symbol: Br # 92
    coordinates: [  0.583333333333333,  0.250000000000000,  0.349447217076566 ]
    mass: 79.904000
    reduced_to: 91
  - symbol: Br # 93
    coordinates: [  0.916666666666667,  0.250000000000000,  0.349447217076566 ]
    mass: 79.904000
    reduced_to: 91
  - symbol: Br # 94
    coordinates: [  0.250000000000000,  0.583333333333333,  0.349447217076566 ]
    mass: 79.904000
    reduced_to: 91
  - symbol: Br # 95
    coordinates: [  0.583333333333333,  0.583333333333333,  0.349447217076566 ]
    mass: 79.904000
    reduced_to: 91
  - symbol: Br # 96
    coordinates: [  0.916666666666667,  0.583333333333333,  0.349447217076566 ]
    mass: 79.904000
    reduced_to: 91
  - symbol: Br # 97
    coordinates: [  0.250000000000000,  0.916666666666667,  0.349447217076566 ]
    mass: 79.904000
    reduced_to: 91
  - symbol: Br # 98
    coordinates: [  0.583333333333333,  0.916666666666667,  0.349447217076566 ]
    mass: 79.904000
    reduced_to: 91
  - symbol: Br # 99
    coordinates: [  0.916666666666667,  0.916666666666667,  0.349447217076566 ]
    mass: 79.904000
    reduced_to: 91
  - symbol: Br # 100
    coordinates: [  0.250000000000000,  0.250000000000000,  0.849447217076566 ]
    mass: 79.904000
    reduced_to: 91
  - symbol: Br # 101
    coordinates: [  0.583333333333333,  0.250000000000000,  0.849447217076566 ]
    mass: 79.904000
    reduced_to: 91
  - symbol: Br # 102
    coordinates: [  0.916666666666667,  0.250000000000000,  0.849447217076566 ]
    mass: 79.904000
    reduced_to: 91
  - symbol: Br # 103
    coordinates: [  0.250000000000000,  0.583333333333333,  0.849447217076566 ]
    mass: 79.904000
    reduced_to: 91
  - symbol: Br # 104
    coordinates: [  0.583333333333333,  0.583333333333333,  0.849447217076566 ]
    mass: 79.904000
    reduced_to: 91
  - symbol: Br # 105
    coordinates: [  0.916666666666667,  0.583333333333333,  0.849447217076566 ]
    mass: 79.904000
    reduced_to: 91
  - symbol: Br # 106
    coordinates: [  0.250000000000000,  0.916666666666667,  0.849447217076566 ]
    mass: 79.904000
    reduced_to: 91
  - symbol: Br # 107
    coordinates: [  0.583333333333333,  0.916666666666667,  0.849447217076566 ]
    mass: 79.904000
    reduced_to: 91
  - symbol: Br # 108
    coordinates: [  0.916666666666667,  0.916666666666667,  0.849447217076566 ]
    mass: 79.904000
    reduced_to: 91

displacements:
- atom:    1
  displacement:
    [   0.0044411840431782,  0.0059003793140047,  0.0067425075636208 ]
- atom:    1
  displacement:
    [  -0.0044411840431782, -0.0059003793140047, -0.0067425075636208 ]
- atom:   37
  displacement:
    [   0.0044411840431782,  0.0059003793140047,  0.0067425075636208 ]
- atom:   37
  displacement:
    [  -0.0044411840431782, -0.0059003793140047, -0.0067425075636208 ]
- atom:   73
  displacement:
    [   0.0044411840431782,  0.0059003793140047,  0.0067425075636208 ]
- atom:   73
  displacement:
    [  -0.0044411840431782, -0.0059003793140047, -0.0067425075636208 ]
